LAMMPS data file: Mercedes polymer (atom_style bond)

187 atoms
189 bonds

1 atom types
1 bond types

-50.0 50.0 xlo xhi
-50.0 50.0 ylo yhi
-50.0 50.0 zlo zhi

Masses

1 1.0

Atoms # bond

1 1 1 0.000000 0.000000 0.000000
2 1 1 0.000000 20.370000 0.000000
3 1 1 -17.640937 10.185000 0.000000
4 1 1 -17.640937 -10.185000 0.000000
5 1 1 -0.000000 -20.370000 0.000000
6 1 1 17.640937 -10.185000 0.000000
7 1 1 17.640937 10.185000 0.000000
8 1 1 -0.863749 19.823961 0.018099
9 1 1 -1.657760 19.390709 0.011020
10 1 1 -2.468822 18.946824 0.021229
11 1 1 -3.339546 18.404093 0.028921
12 1 1 -4.249677 17.935037 -0.013119
13 1 1 -5.092123 17.456690 0.049304
14 1 1 -5.890516 16.938772 -0.002732
15 1 1 -6.694739 16.495797 -0.000080
16 1 1 -7.602678 16.020030 0.014572
17 1 1 -8.360208 15.564672 0.020657
18 1 1 -9.289764 14.991938 -0.032939
19 1 1 -10.071688 14.526383 0.039286
20 1 1 -10.913265 14.075943 0.022515
21 1 1 -11.750418 13.537683 0.073558
22 1 1 -12.556780 13.140694 -0.022424
23 1 1 -13.496139 12.564801 -0.031604
24 1 1 -14.254295 12.152010 0.043752
25 1 1 -15.056530 11.655627 0.010637
26 1 1 -15.971738 11.144906 -0.034734
27 1 1 -16.785569 10.679545 -0.012156
28 1 1 -17.665255 9.228709 0.039185
29 1 1 -17.638493 8.253513 -0.016445
30 1 1 -17.648393 7.265505 -0.008552
31 1 1 -17.658855 6.316892 0.038992
32 1 1 -17.669353 5.376976 -0.012090
33 1 1 -17.651950 4.300306 -0.072644
34 1 1 -17.618872 3.362267 0.024159
35 1 1 -17.639419 2.432514 0.039999
36 1 1 -17.643108 1.357017 -0.052159
37 1 1 -17.611759 0.544900 -0.002879
38 1 1 -17.662003 -0.526766 0.016382
39 1 1 -17.694874 -1.492374 0.004078
40 1 1 -17.637879 -2.432764 0.031902
41 1 1 -17.678240 -3.430725 -0.012551
42 1 1 -17.638983 -4.375133 0.059781
43 1 1 -17.659054 -5.315940 -0.017592
44 1 1 -17.631316 -6.318287 -0.011791
45 1 1 -17.592228 -7.285111 0.051514
46 1 1 -17.663123 -8.259064 0.033283
47 1 1 -17.715327 -9.265216 0.000539
48 1 1 -16.786586 -10.652814 -0.009781
49 1 1 -16.004207 -11.129967 0.013390
50 1 1 -15.155044 -11.637415 0.054637
51 1 1 -14.277044 -12.161092 -0.012991
52 1 1 -13.451946 -12.599687 0.027411
53 1 1 -12.629175 -13.114894 0.030921
54 1 1 -11.738202 -13.538815 -0.044581
55 1 1 -10.949826 -14.034473 -0.029069
56 1 1 -10.070755 -14.551762 -0.022876
57 1 1 -9.195883 -15.035554 -0.015581
58 1 1 -8.405428 -15.512539 -0.048180
59 1 1 -7.586875 -16.044193 -0.064332
60 1 1 -6.690638 -16.446334 0.036189
61 1 1 -5.934476 -16.962938 0.020624
62 1 1 -5.057789 -17.435185 -0.034186
63 1 1 -4.233136 -17.970556 -0.022140
64 1 1 -3.391072 -18.400830 -0.032781
65 1 1 -2.534450 -18.934568 0.066886
66 1 1 -1.707601 -19.385778 0.055204
67 1 1 -0.876223 -19.910445 -0.010190
68 1 1 0.799630 -19.847904 -0.014567
69 1 1 1.711899 -19.383968 0.000529
70 1 1 2.549071 -18.924298 0.031832
71 1 1 3.320339 -18.452635 0.036418
72 1 1 4.136753 -17.930710 -0.012501
73 1 1 5.023695 -17.481150 0.038723
74 1 1 5.834175 -16.949945 0.014315
75 1 1 6.707464 -16.492662 0.021210
76 1 1 7.542467 -16.050649 0.008461
77 1 1 8.375046 -15.532392 0.001575
78 1 1 9.262609 -14.980500 0.010277
79 1 1 10.083989 -14.525415 0.008573
80 1 1 10.869845 -14.083085 -0.037190
81 1 1 11.781523 -13.541799 0.010686
82 1 1 12.569723 -13.070965 -0.028907
83 1 1 13.448314 -12.645996 -0.041614
84 1 1 14.238626 -12.124482 -0.019855
85 1 1 15.133896 -11.678980 0.014708
86 1 1 15.942271 -11.117422 0.030592
87 1 1 16.794405 -10.666752 0.007308
88 1 1 17.654850 -9.223227 0.032869
89 1 1 17.625684 -8.302754 0.007391
90 1 1 17.637686 -7.250027 0.017880
91 1 1 17.644822 -6.301781 0.003801
92 1 1 17.621159 -5.371523 -0.024628
93 1 1 17.638198 -4.432961 -0.013072
94 1 1 17.611479 -3.397645 -0.024403
95 1 1 17.642806 -2.431845 0.038882
96 1 1 17.630640 -1.462306 0.000772
97 1 1 17.586401 -0.517165 0.043087
98 1 1 17.656432 0.487528 0.032446
99 1 1 17.635530 1.447525 -0.009080
100 1 1 17.587660 2.453173 -0.005675
101 1 1 17.638114 3.384973 -0.019049
102 1 1 17.573164 4.369534 0.065431
103 1 1 17.670582 5.326355 -0.027741
104 1 1 17.641708 6.316127 -0.003610
105 1 1 17.665959 7.246405 0.032030
106 1 1 17.645591 8.228525 -0.008510
107 1 1 17.651358 9.237869 0.002173
108 1 1 16.818349 10.742106 -0.049167
109 1 1 15.900687 11.157662 -0.029033
110 1 1 15.124194 11.591688 0.003988
111 1 1 14.320085 12.158254 -0.032940
112 1 1 13.431428 12.636555 0.054736
113 1 1 12.572076 13.069378 0.033529
114 1 1 11.749848 13.549198 0.031535
115 1 1 10.870179 14.044481 0.028990
116 1 1 10.061686 14.572912 -0.036800
117 1 1 9.263752 15.049163 0.048620
118 1 1 8.393070 15.509421 -0.002875
119 1 1 7.591829 15.982720 -0.004264
120 1 1 6.778846 16.513408 0.021728
121 1 1 5.864680 17.000831 -0.034940
122 1 1 4.995509 17.431728 0.042532
123 1 1 4.205242 17.916978 -0.010745
124 1 1 3.373702 18.465447 -0.049003
125 1 1 2.560243 18.942941 -0.020928
126 1 1 1.668109 19.414716 -0.008596
127 1 1 0.844168 19.853197 -0.054684
128 1 1 0.072862 0.975119 0.006734
129 1 1 0.015264 1.980064 0.027868
130 1 1 -0.030852 2.906610 0.002077
131 1 1 0.022853 3.861988 0.011441
132 1 1 0.006754 4.891384 -0.078268
133 1 1 0.002388 5.830176 0.020237
134 1 1 -0.000258 6.765142 0.020080
135 1 1 0.011062 7.734768 -0.040834
136 1 1 0.016733 8.703980 0.019496
137 1 1 0.045475 9.706182 0.006863
138 1 1 0.003761 10.711579 0.042087
139 1 1 0.002529 11.662273 0.001349
140 1 1 -0.014909 12.633045 -0.002663
141 1 1 -0.025499 13.535059 0.029763
142 1 1 -0.028917 14.516683 -0.007907
143 1 1 0.022184 15.468180 0.019103
144 1 1 0.011749 16.453523 -0.034176
145 1 1 -0.005234 17.518017 -0.007523
146 1 1 0.032582 18.458313 -0.047619
147 1 1 -0.000039 19.429612 -0.014910
148 1 1 -0.803384 -0.517324 -0.044075
149 1 1 -1.693237 -0.950236 -0.011503
150 1 1 -2.492389 -1.501234 -0.017336
151 1 1 -3.319005 -2.013541 0.009418
152 1 1 -4.226774 -2.447187 -0.009676
153 1 1 -5.084220 -2.882033 0.017634
154 1 1 -5.843572 -3.389933 -0.028198
155 1 1 -6.700764 -3.920034 -0.027376
156 1 1 -7.497261 -4.332542 0.013472
157 1 1 -8.355743 -4.858503 0.017847
158 1 1 -9.264671 -5.344764 0.002909
159 1 1 -10.035363 -5.840651 0.032057
160 1 1 -10.920549 -6.357554 -0.057706
161 1 1 -11.781258 -6.757406 0.008088
162 1 1 -12.545644 -7.269204 0.042994
163 1 1 -13.432820 -7.787079 0.021868
164 1 1 -14.302788 -8.287120 -0.022254
165 1 1 -15.132162 -8.722099 0.026034
166 1 1 -15.942103 -9.151626 -0.058545
167 1 1 -16.805876 -9.621642 -0.008922
168 1 1 0.802647 -0.507217 -0.028688
169 1 1 1.665776 -0.917311 -0.041518
170 1 1 2.499779 -1.411672 0.009566
171 1 1 3.370745 -1.950712 0.029040
172 1 1 4.170211 -2.395490 0.004378
173 1 1 5.035292 -2.925437 0.029348
174 1 1 5.891208 -3.406087 0.004307
175 1 1 6.689484 -3.840689 0.042436
176 1 1 7.595394 -4.355418 0.016281
177 1 1 8.360423 -4.860122 -0.006397
178 1 1 9.237471 -5.315006 -0.012248
179 1 1 10.059307 -5.782805 -0.008393
180 1 1 10.902216 -6.364703 -0.040135
181 1 1 11.754572 -6.780978 -0.052777
182 1 1 12.600916 -7.264407 -0.014475
183 1 1 13.443070 -7.717016 -0.021872
184 1 1 14.230448 -8.255804 -0.025954
185 1 1 15.119869 -8.708548 0.027234
186 1 1 15.971019 -9.172389 0.011375
187 1 1 16.832233 -9.688969 0.008745

Bonds

1 1 2 8
2 1 8 9
3 1 9 10
4 1 10 11
5 1 11 12
6 1 12 13
7 1 13 14
8 1 14 15
9 1 15 16
10 1 16 17
11 1 17 18
12 1 18 19
13 1 19 20
14 1 20 21
15 1 21 22
16 1 22 23
17 1 23 24
18 1 24 25
19 1 25 26
20 1 26 27
21 1 27 3
22 1 3 28
23 1 28 29
24 1 29 30
25 1 30 31
26 1 31 32
27 1 32 33
28 1 33 34
29 1 34 35
30 1 35 36
31 1 36 37
32 1 37 38
33 1 38 39
34 1 39 40
35 1 40 41
36 1 41 42
37 1 42 43
38 1 43 44
39 1 44 45
40 1 45 46
41 1 46 47
42 1 47 4
43 1 4 48
44 1 48 49
45 1 49 50
46 1 50 51
47 1 51 52
48 1 52 53
49 1 53 54
50 1 54 55
51 1 55 56
52 1 56 57
53 1 57 58
54 1 58 59
55 1 59 60
56 1 60 61
57 1 61 62
58 1 62 63
59 1 63 64
60 1 64 65
61 1 65 66
62 1 66 67
63 1 67 5
64 1 5 68
65 1 68 69
66 1 69 70
67 1 70 71
68 1 71 72
69 1 72 73
70 1 73 74
71 1 74 75
72 1 75 76
73 1 76 77
74 1 77 78
75 1 78 79
76 1 79 80
77 1 80 81
78 1 81 82
79 1 82 83
80 1 83 84
81 1 84 85
82 1 85 86
83 1 86 87
84 1 87 6
85 1 6 88
86 1 88 89
87 1 89 90
88 1 90 91
89 1 91 92
90 1 92 93
91 1 93 94
92 1 94 95
93 1 95 96
94 1 96 97
95 1 97 98
96 1 98 99
97 1 99 100
98 1 100 101
99 1 101 102
100 1 102 103
101 1 103 104
102 1 104 105
103 1 105 106
104 1 106 107
105 1 107 7
106 1 7 108
107 1 108 109
108 1 109 110
109 1 110 111
110 1 111 112
111 1 112 113
112 1 113 114
113 1 114 115
114 1 115 116
115 1 116 117
116 1 117 118
117 1 118 119
118 1 119 120
119 1 120 121
120 1 121 122
121 1 122 123
122 1 123 124
123 1 124 125
124 1 125 126
125 1 126 127
126 1 127 2
127 1 1 128
128 1 128 129
129 1 129 130
130 1 130 131
131 1 131 132
132 1 132 133
133 1 133 134
134 1 134 135
135 1 135 136
136 1 136 137
137 1 137 138
138 1 138 139
139 1 139 140
140 1 140 141
141 1 141 142
142 1 142 143
143 1 143 144
144 1 144 145
145 1 145 146
146 1 146 147
147 1 147 2
148 1 1 148
149 1 148 149
150 1 149 150
151 1 150 151
152 1 151 152
153 1 152 153
154 1 153 154
155 1 154 155
156 1 155 156
157 1 156 157
158 1 157 158
159 1 158 159
160 1 159 160
161 1 160 161
162 1 161 162
163 1 162 163
164 1 163 164
165 1 164 165
166 1 165 166
167 1 166 167
168 1 167 4
169 1 1 168
170 1 168 169
171 1 169 170
172 1 170 171
173 1 171 172
174 1 172 173
175 1 173 174
176 1 174 175
177 1 175 176
178 1 176 177
179 1 177 178
180 1 178 179
181 1 179 180
182 1 180 181
183 1 181 182
184 1 182 183
185 1 183 184
186 1 184 185
187 1 185 186
188 1 186 187
189 1 187 6
