LAMMPS data file: Tree polymer (atom_style bond)

187 atoms
186 bonds

1 atom types
1 bond types

-50.0 50.0 xlo xhi
-50.0 50.0 ylo yhi
-50.0 50.0 zlo zhi

Masses

1 1.0

Atoms # bond

1 1 1 0.000000 0.000000 0.000000
2 1 1 1.000000 0.000000 0.000000
3 1 1 2.000000 0.000000 0.000000
4 1 1 3.000000 0.000000 0.000000
5 1 1 4.000000 0.000000 0.000000
6 1 1 5.000000 0.000000 0.000000
7 1 1 6.000000 0.000000 0.000000
8 1 1 7.000000 0.000000 0.000000
9 1 1 8.000000 0.000000 0.000000
10 1 1 9.000000 0.000000 0.000000
11 1 1 10.000000 0.000000 0.000000
12 1 1 11.000000 0.000000 0.000000
13 1 1 12.000000 0.000000 0.000000
14 1 1 13.000000 0.000000 0.000000
15 1 1 14.000000 0.000000 0.000000
16 1 1 15.000000 0.000000 0.000000
17 1 1 16.000000 0.000000 0.000000
18 1 1 17.000000 0.000000 0.000000
19 1 1 18.000000 0.000000 0.000000
20 1 1 19.000000 0.000000 0.000000
21 1 1 20.000000 0.000000 0.000000
22 1 1 20.707107 0.707107 0.000000
23 1 1 21.414214 1.414214 0.000000
24 1 1 22.121320 2.121320 0.000000
25 1 1 22.828427 2.828427 0.000000
26 1 1 23.535534 3.535534 0.000000
27 1 1 24.242641 4.242641 0.000000
28 1 1 24.949747 4.949747 0.000000
29 1 1 25.656854 5.656854 0.000000
30 1 1 26.363961 6.363961 0.000000
31 1 1 27.071068 7.071068 0.000000
32 1 1 27.778175 7.778175 0.000000
33 1 1 28.485281 8.485281 0.000000
34 1 1 29.192388 9.192388 0.000000
35 1 1 29.899495 9.899495 0.000000
36 1 1 30.606602 10.606602 0.000000
37 1 1 31.313708 11.313708 0.000000
38 1 1 32.020815 12.020815 0.000000
39 1 1 32.727922 12.727922 0.000000
40 1 1 33.435029 13.435029 0.000000
41 1 1 34.142136 14.142136 0.000000
42 1 1 34.849242 14.849242 0.000000
43 1 1 20.707107 -0.707107 0.000000
44 1 1 21.414214 -1.414214 0.000000
45 1 1 22.121320 -2.121320 0.000000
46 1 1 22.828427 -2.828427 0.000000
47 1 1 23.535534 -3.535534 0.000000
48 1 1 24.242641 -4.242641 0.000000
49 1 1 24.949747 -4.949747 0.000000
50 1 1 25.656854 -5.656854 0.000000
51 1 1 26.363961 -6.363961 0.000000
52 1 1 27.071068 -7.071068 0.000000
53 1 1 27.778175 -7.778175 0.000000
54 1 1 28.485281 -8.485281 0.000000
55 1 1 29.192388 -9.192388 0.000000
56 1 1 29.899495 -9.899495 0.000000
57 1 1 30.606602 -10.606602 0.000000
58 1 1 31.313708 -11.313708 0.000000
59 1 1 32.020815 -12.020815 0.000000
60 1 1 32.727922 -12.727922 0.000000
61 1 1 33.435029 -13.435029 0.000000
62 1 1 34.142136 -14.142136 0.000000
63 1 1 34.849242 -14.849242 0.000000
64 1 1 -0.500000 0.866025 0.000000
65 1 1 -1.000000 1.732051 0.000000
66 1 1 -1.500000 2.598076 0.000000
67 1 1 -2.000000 3.464102 0.000000
68 1 1 -2.500000 4.330127 0.000000
69 1 1 -3.000000 5.196152 0.000000
70 1 1 -3.500000 6.062178 0.000000
71 1 1 -4.000000 6.928203 0.000000
72 1 1 -4.500000 7.794229 0.000000
73 1 1 -5.000000 8.660254 0.000000
74 1 1 -5.500000 9.526279 0.000000
75 1 1 -6.000000 10.392305 0.000000
76 1 1 -6.500000 11.258330 0.000000
77 1 1 -7.000000 12.124356 0.000000
78 1 1 -7.500000 12.990381 0.000000
79 1 1 -8.000000 13.856406 0.000000
80 1 1 -8.500000 14.722432 0.000000
81 1 1 -9.000000 15.588457 0.000000
82 1 1 -9.500000 16.454483 0.000000
83 1 1 -10.000000 17.320508 0.000000
84 1 1 -10.965926 17.579327 0.000000
85 1 1 -11.931852 17.838146 0.000000
86 1 1 -12.897777 18.096965 0.000000
87 1 1 -13.863703 18.355784 0.000000
88 1 1 -14.829629 18.614603 0.000000
89 1 1 -15.795555 18.873422 0.000000
90 1 1 -16.761481 19.132241 0.000000
91 1 1 -17.727407 19.391060 0.000000
92 1 1 -18.693332 19.649879 0.000000
93 1 1 -19.659258 19.908699 0.000000
94 1 1 -20.625184 20.167518 0.000000
95 1 1 -21.591110 20.426337 0.000000
96 1 1 -22.557036 20.685156 0.000000
97 1 1 -23.522962 20.943975 0.000000
98 1 1 -24.488887 21.202794 0.000000
99 1 1 -25.454813 21.461613 0.000000
100 1 1 -26.420739 21.720432 0.000000
101 1 1 -27.386665 21.979251 0.000000
102 1 1 -28.352591 22.238070 0.000000
103 1 1 -29.318517 22.496889 0.000000
104 1 1 -30.284442 22.755708 0.000000
105 1 1 -9.741181 18.286434 0.000000
106 1 1 -9.482362 19.252360 0.000000
107 1 1 -9.223543 20.218286 0.000000
108 1 1 -8.964724 21.184211 0.000000
109 1 1 -8.705905 22.150137 0.000000
110 1 1 -8.447086 23.116063 0.000000
111 1 1 -8.188267 24.081989 0.000000
112 1 1 -7.929448 25.047915 0.000000
113 1 1 -7.670629 26.013841 0.000000
114 1 1 -7.411810 26.979766 0.000000
115 1 1 -7.152991 27.945692 0.000000
116 1 1 -6.894171 28.911618 0.000000
117 1 1 -6.635352 29.877544 0.000000
118 1 1 -6.376533 30.843470 0.000000
119 1 1 -6.117714 31.809395 0.000000
120 1 1 -5.858895 32.775321 0.000000
121 1 1 -5.600076 33.741247 0.000000
122 1 1 -5.341257 34.707173 0.000000
123 1 1 -5.082438 35.673099 0.000000
124 1 1 -4.823619 36.639025 0.000000
125 1 1 -4.564800 37.604950 0.000000
126 1 1 -0.500000 -0.866025 0.000000
127 1 1 -1.000000 -1.732051 0.000000
128 1 1 -1.500000 -2.598076 0.000000
129 1 1 -2.000000 -3.464102 0.000000
130 1 1 -2.500000 -4.330127 0.000000
131 1 1 -3.000000 -5.196152 0.000000
132 1 1 -3.500000 -6.062178 0.000000
133 1 1 -4.000000 -6.928203 0.000000
134 1 1 -4.500000 -7.794229 0.000000
135 1 1 -5.000000 -8.660254 0.000000
136 1 1 -5.500000 -9.526279 0.000000
137 1 1 -6.000000 -10.392305 0.000000
138 1 1 -6.500000 -11.258330 0.000000
139 1 1 -7.000000 -12.124356 0.000000
140 1 1 -7.500000 -12.990381 0.000000
141 1 1 -8.000000 -13.856406 0.000000
142 1 1 -8.500000 -14.722432 0.000000
143 1 1 -9.000000 -15.588457 0.000000
144 1 1 -9.500000 -16.454483 0.000000
145 1 1 -10.000000 -17.320508 0.000000
146 1 1 -9.741181 -18.286434 0.000000
147 1 1 -9.482362 -19.252360 0.000000
148 1 1 -9.223543 -20.218286 0.000000
149 1 1 -8.964724 -21.184211 0.000000
150 1 1 -8.705905 -22.150137 0.000000
151 1 1 -8.447086 -23.116063 0.000000
152 1 1 -8.188267 -24.081989 0.000000
153 1 1 -7.929448 -25.047915 0.000000
154 1 1 -7.670629 -26.013841 0.000000
155 1 1 -7.411810 -26.979766 0.000000
156 1 1 -7.152991 -27.945692 0.000000
157 1 1 -6.894171 -28.911618 0.000000
158 1 1 -6.635352 -29.877544 0.000000
159 1 1 -6.376533 -30.843470 0.000000
160 1 1 -6.117714 -31.809395 0.000000
161 1 1 -5.858895 -32.775321 0.000000
162 1 1 -5.600076 -33.741247 0.000000
163 1 1 -5.341257 -34.707173 0.000000
164 1 1 -5.082438 -35.673099 0.000000
165 1 1 -4.823619 -36.639025 0.000000
166 1 1 -4.564800 -37.604950 0.000000
167 1 1 -10.965926 -17.579327 0.000000
168 1 1 -11.931852 -17.838146 0.000000
169 1 1 -12.897777 -18.096965 0.000000
170 1 1 -13.863703 -18.355784 0.000000
171 1 1 -14.829629 -18.614603 0.000000
172 1 1 -15.795555 -18.873422 0.000000
173 1 1 -16.761481 -19.132241 0.000000
174 1 1 -17.727407 -19.391060 0.000000
175 1 1 -18.693332 -19.649879 0.000000
176 1 1 -19.659258 -19.908699 0.000000
177 1 1 -20.625184 -20.167518 0.000000
178 1 1 -21.591110 -20.426337 0.000000
179 1 1 -22.557036 -20.685156 0.000000
180 1 1 -23.522962 -20.943975 0.000000
181 1 1 -24.488887 -21.202794 0.000000
182 1 1 -25.454813 -21.461613 0.000000
183 1 1 -26.420739 -21.720432 0.000000
184 1 1 -27.386665 -21.979251 0.000000
185 1 1 -28.352591 -22.238070 0.000000
186 1 1 -29.318517 -22.496889 0.000000
187 1 1 -30.284442 -22.755708 0.000000

Bonds

1 1 1 2
2 1 2 3
3 1 3 4
4 1 4 5
5 1 5 6
6 1 6 7
7 1 7 8
8 1 8 9
9 1 9 10
10 1 10 11
11 1 11 12
12 1 12 13
13 1 13 14
14 1 14 15
15 1 15 16
16 1 16 17
17 1 17 18
18 1 18 19
19 1 19 20
20 1 20 21
21 1 21 22
22 1 22 23
23 1 23 24
24 1 24 25
25 1 25 26
26 1 26 27
27 1 27 28
28 1 28 29
29 1 29 30
30 1 30 31
31 1 31 32
32 1 32 33
33 1 33 34
34 1 34 35
35 1 35 36
36 1 36 37
37 1 37 38
38 1 38 39
39 1 39 40
40 1 40 41
41 1 41 42
42 1 21 43
43 1 43 44
44 1 44 45
45 1 45 46
46 1 46 47
47 1 47 48
48 1 48 49
49 1 49 50
50 1 50 51
51 1 51 52
52 1 52 53
53 1 53 54
54 1 54 55
55 1 55 56
56 1 56 57
57 1 57 58
58 1 58 59
59 1 59 60
60 1 60 61
61 1 61 62
62 1 62 63
63 1 1 64
64 1 64 65
65 1 65 66
66 1 66 67
67 1 67 68
68 1 68 69
69 1 69 70
70 1 70 71
71 1 71 72
72 1 72 73
73 1 73 74
74 1 74 75
75 1 75 76
76 1 76 77
77 1 77 78
78 1 78 79
79 1 79 80
80 1 80 81
81 1 81 82
82 1 82 83
83 1 83 84
84 1 84 85
85 1 85 86
86 1 86 87
87 1 87 88
88 1 88 89
89 1 89 90
90 1 90 91
91 1 91 92
92 1 92 93
93 1 93 94
94 1 94 95
95 1 95 96
96 1 96 97
97 1 97 98
98 1 98 99
99 1 99 100
100 1 100 101
101 1 101 102
102 1 102 103
103 1 103 104
104 1 83 105
105 1 105 106
106 1 106 107
107 1 107 108
108 1 108 109
109 1 109 110
110 1 110 111
111 1 111 112
112 1 112 113
113 1 113 114
114 1 114 115
115 1 115 116
116 1 116 117
117 1 117 118
118 1 118 119
119 1 119 120
120 1 120 121
121 1 121 122
122 1 122 123
123 1 123 124
124 1 124 125
125 1 1 126
126 1 126 127
127 1 127 128
128 1 128 129
129 1 129 130
130 1 130 131
131 1 131 132
132 1 132 133
133 1 133 134
134 1 134 135
135 1 135 136
136 1 136 137
137 1 137 138
138 1 138 139
139 1 139 140
140 1 140 141
141 1 141 142
142 1 142 143
143 1 143 144
144 1 144 145
145 1 145 146
146 1 146 147
147 1 147 148
148 1 148 149
149 1 149 150
150 1 150 151
151 1 151 152
152 1 152 153
153 1 153 154
154 1 154 155
155 1 155 156
156 1 156 157
157 1 157 158
158 1 158 159
159 1 159 160
160 1 160 161
161 1 161 162
162 1 162 163
163 1 163 164
164 1 164 165
165 1 165 166
166 1 145 167
167 1 167 168
168 1 168 169
169 1 169 170
170 1 170 171
171 1 171 172
172 1 172 173
173 1 173 174
174 1 174 175
175 1 175 176
176 1 176 177
177 1 177 178
178 1 178 179
179 1 179 180
180 1 180 181
181 1 181 182
182 1 182 183
183 1 183 184
184 1 184 185
185 1 185 186
186 1 186 187
