LAMMPS data file: Mercedes-like polymer (with spoke atoms)

187 atoms
189 bonds

1 atom types
1 bond types

-12.000000 12.000000 xlo xhi
-12.000000 12.000000 ylo yhi
-5.000000 5.000000 zlo zhi

Masses

1 1.0

Atoms # bond

1 1 1 0.000000 0.000000 0.000000
2 1 1 10.000000 0.000000 0.000000
3 1 1 9.987569 0.498459 0.000000
4 1 1 9.950308 0.995678 0.000000
5 1 1 9.888308 1.490423 0.000000
6 1 1 9.801725 1.981461 0.000000
7 1 1 9.690773 2.467574 0.000000
8 1 1 9.555728 2.947552 0.000000
9 1 1 9.396926 3.420201 0.000000
10 1 1 9.214762 3.884348 0.000000
11 1 1 9.009689 4.338837 0.000000
12 1 1 8.782216 4.782540 0.000000
13 1 1 8.532909 5.214352 0.000000
14 1 1 8.262388 5.633201 0.000000
15 1 1 7.971325 6.038044 0.000000
16 1 1 7.660444 6.427876 0.000000
17 1 1 7.330519 6.801727 0.000000
18 1 1 6.982368 7.158668 0.000000
19 1 1 6.616858 7.497812 0.000000
20 1 1 6.234898 7.818315 0.000000
21 1 1 5.837437 8.119380 0.000000
22 1 1 5.425463 8.400259 0.000000
23 1 1 5.000000 8.660254 0.000000
24 1 1 4.562107 8.898718 0.000000
25 1 1 4.112871 9.115059 0.000000
26 1 1 3.653410 9.308737 0.000000
27 1 1 3.184867 9.479273 0.000000
28 1 1 2.708405 9.626242 0.000000
29 1 1 2.225209 9.749279 0.000000
30 1 1 1.736482 9.848078 0.000000
31 1 1 1.243437 9.922392 0.000000
32 1 1 0.747301 9.972038 0.000000
33 1 1 0.249307 9.996892 0.000000
34 1 1 -0.249307 9.996892 0.000000
35 1 1 -0.747301 9.972038 0.000000
36 1 1 -1.243437 9.922392 0.000000
37 1 1 -1.736482 9.848078 0.000000
38 1 1 -2.225209 9.749279 0.000000
39 1 1 -2.708405 9.626242 0.000000
40 1 1 -3.184867 9.479273 0.000000
41 1 1 -3.653410 9.308737 0.000000
42 1 1 -4.112871 9.115059 0.000000
43 1 1 -4.562107 8.898718 0.000000
44 1 1 -5.000000 8.660254 0.000000
45 1 1 -5.425463 8.400259 0.000000
46 1 1 -5.837437 8.119380 0.000000
47 1 1 -6.234898 7.818315 0.000000
48 1 1 -6.616858 7.497812 0.000000
49 1 1 -6.982368 7.158668 0.000000
50 1 1 -7.330519 6.801727 0.000000
51 1 1 -7.660444 6.427876 0.000000
52 1 1 -7.971325 6.038044 0.000000
53 1 1 -8.262388 5.633201 0.000000
54 1 1 -8.532909 5.214352 0.000000
55 1 1 -8.782216 4.782540 0.000000
56 1 1 -9.009689 4.338837 0.000000
57 1 1 -9.214762 3.884348 0.000000
58 1 1 -9.396926 3.420201 0.000000
59 1 1 -9.555728 2.947552 0.000000
60 1 1 -9.690773 2.467574 0.000000
61 1 1 -9.801725 1.981461 0.000000
62 1 1 -9.888308 1.490423 0.000000
63 1 1 -9.950308 0.995678 0.000000
64 1 1 -9.987569 0.498459 0.000000
65 1 1 -10.000000 0.000000 0.000000
66 1 1 -9.987569 -0.498459 0.000000
67 1 1 -9.950308 -0.995678 0.000000
68 1 1 -9.888308 -1.490423 0.000000
69 1 1 -9.801725 -1.981461 0.000000
70 1 1 -9.690773 -2.467574 0.000000
71 1 1 -9.555728 -2.947552 0.000000
72 1 1 -9.396926 -3.420201 0.000000
73 1 1 -9.214762 -3.884348 0.000000
74 1 1 -9.009689 -4.338837 0.000000
75 1 1 -8.782216 -4.782540 0.000000
76 1 1 -8.532909 -5.214352 0.000000
77 1 1 -8.262388 -5.633201 0.000000
78 1 1 -7.971325 -6.038044 0.000000
79 1 1 -7.660444 -6.427876 0.000000
80 1 1 -7.330519 -6.801727 0.000000
81 1 1 -6.982368 -7.158668 0.000000
82 1 1 -6.616858 -7.497812 0.000000
83 1 1 -6.234898 -7.818315 0.000000
84 1 1 -5.837437 -8.119380 0.000000
85 1 1 -5.425463 -8.400259 0.000000
86 1 1 -5.000000 -8.660254 0.000000
87 1 1 -4.562107 -8.898718 0.000000
88 1 1 -4.112871 -9.115059 0.000000
89 1 1 -3.653410 -9.308737 0.000000
90 1 1 -3.184867 -9.479273 0.000000
91 1 1 -2.708405 -9.626242 0.000000
92 1 1 -2.225209 -9.749279 0.000000
93 1 1 -1.736482 -9.848078 0.000000
94 1 1 -1.243437 -9.922392 0.000000
95 1 1 -0.747301 -9.972038 0.000000
96 1 1 -0.249307 -9.996892 0.000000
97 1 1 0.249307 -9.996892 0.000000
98 1 1 0.747301 -9.972038 0.000000
99 1 1 1.243437 -9.922392 0.000000
100 1 1 1.736482 -9.848078 0.000000
101 1 1 2.225209 -9.749279 0.000000
102 1 1 2.708405 -9.626242 0.000000
103 1 1 3.184867 -9.479273 0.000000
104 1 1 3.653410 -9.308737 0.000000
105 1 1 4.112871 -9.115059 0.000000
106 1 1 4.562107 -8.898718 0.000000
107 1 1 5.000000 -8.660254 0.000000
108 1 1 5.425463 -8.400259 0.000000
109 1 1 5.837437 -8.119380 0.000000
110 1 1 6.234898 -7.818315 0.000000
111 1 1 6.616858 -7.497812 0.000000
112 1 1 6.982368 -7.158668 0.000000
113 1 1 7.330519 -6.801727 0.000000
114 1 1 7.660444 -6.427876 0.000000
115 1 1 7.971325 -6.038044 0.000000
116 1 1 8.262388 -5.633201 0.000000
117 1 1 8.532909 -5.214352 0.000000
118 1 1 8.782216 -4.782540 0.000000
119 1 1 9.009689 -4.338837 0.000000
120 1 1 9.214762 -3.884348 0.000000
121 1 1 9.396926 -3.420201 0.000000
122 1 1 9.555728 -2.947552 0.000000
123 1 1 9.690773 -2.467574 0.000000
124 1 1 9.801725 -1.981461 0.000000
125 1 1 9.888308 -1.490423 0.000000
126 1 1 9.950308 -0.995678 0.000000
127 1 1 9.987569 -0.498459 0.000000
128 1 1 0.476190 0.000000 0.000000
129 1 1 0.952381 0.000000 0.000000
130 1 1 1.428571 0.000000 0.000000
131 1 1 1.904762 0.000000 0.000000
132 1 1 2.380952 0.000000 0.000000
133 1 1 2.857143 0.000000 0.000000
134 1 1 3.333333 0.000000 0.000000
135 1 1 3.809524 0.000000 0.000000
136 1 1 4.285714 0.000000 0.000000
137 1 1 4.761905 0.000000 0.000000
138 1 1 5.238095 0.000000 0.000000
139 1 1 5.714286 0.000000 0.000000
140 1 1 6.190476 0.000000 0.000000
141 1 1 6.666667 0.000000 0.000000
142 1 1 7.142857 0.000000 0.000000
143 1 1 7.619048 0.000000 0.000000
144 1 1 8.095238 0.000000 0.000000
145 1 1 8.571429 0.000000 0.000000
146 1 1 9.047619 0.000000 0.000000
147 1 1 9.523810 0.000000 0.000000
148 1 1 -0.238095 0.412393 0.000000
149 1 1 -0.476190 0.824786 0.000000
150 1 1 -0.714286 1.237179 0.000000
151 1 1 -0.952381 1.649572 0.000000
152 1 1 -1.190476 2.061965 0.000000
153 1 1 -1.428571 2.474358 0.000000
154 1 1 -1.666667 2.886751 0.000000
155 1 1 -1.904762 3.299144 0.000000
156 1 1 -2.142857 3.711537 0.000000
157 1 1 -2.380952 4.123930 0.000000
158 1 1 -2.619048 4.536324 0.000000
159 1 1 -2.857143 4.948717 0.000000
160 1 1 -3.095238 5.361110 0.000000
161 1 1 -3.333333 5.773503 0.000000
162 1 1 -3.571429 6.185896 0.000000
163 1 1 -3.809524 6.598289 0.000000
164 1 1 -4.047619 7.010682 0.000000
165 1 1 -4.285714 7.423075 0.000000
166 1 1 -4.523810 7.835468 0.000000
167 1 1 -4.761905 8.247861 0.000000
168 1 1 -0.238095 -0.412393 0.000000
169 1 1 -0.476190 -0.824786 0.000000
170 1 1 -0.714286 -1.237179 0.000000
171 1 1 -0.952381 -1.649572 0.000000
172 1 1 -1.190476 -2.061965 0.000000
173 1 1 -1.428571 -2.474358 0.000000
174 1 1 -1.666667 -2.886751 0.000000
175 1 1 -1.904762 -3.299144 0.000000
176 1 1 -2.142857 -3.711537 0.000000
177 1 1 -2.380952 -4.123930 0.000000
178 1 1 -2.619048 -4.536324 0.000000
179 1 1 -2.857143 -4.948717 0.000000
180 1 1 -3.095238 -5.361110 0.000000
181 1 1 -3.333333 -5.773503 0.000000
182 1 1 -3.571429 -6.185896 0.000000
183 1 1 -3.809524 -6.598289 0.000000
184 1 1 -4.047619 -7.010682 0.000000
185 1 1 -4.285714 -7.423075 0.000000
186 1 1 -4.523810 -7.835468 0.000000
187 1 1 -4.761905 -8.247861 0.000000

Bonds

1 1 2 3
2 1 3 4
3 1 4 5
4 1 5 6
5 1 6 7
6 1 7 8
7 1 8 9
8 1 9 10
9 1 10 11
10 1 11 12
11 1 12 13
12 1 13 14
13 1 14 15
14 1 15 16
15 1 16 17
16 1 17 18
17 1 18 19
18 1 19 20
19 1 20 21
20 1 21 22
21 1 22 23
22 1 23 24
23 1 24 25
24 1 25 26
25 1 26 27
26 1 27 28
27 1 28 29
28 1 29 30
29 1 30 31
30 1 31 32
31 1 32 33
32 1 33 34
33 1 34 35
34 1 35 36
35 1 36 37
36 1 37 38
37 1 38 39
38 1 39 40
39 1 40 41
40 1 41 42
41 1 42 43
42 1 43 44
43 1 44 45
44 1 45 46
45 1 46 47
46 1 47 48
47 1 48 49
48 1 49 50
49 1 50 51
50 1 51 52
51 1 52 53
52 1 53 54
53 1 54 55
54 1 55 56
55 1 56 57
56 1 57 58
57 1 58 59
58 1 59 60
59 1 60 61
60 1 61 62
61 1 62 63
62 1 63 64
63 1 64 65
64 1 65 66
65 1 66 67
66 1 67 68
67 1 68 69
68 1 69 70
69 1 70 71
70 1 71 72
71 1 72 73
72 1 73 74
73 1 74 75
74 1 75 76
75 1 76 77
76 1 77 78
77 1 78 79
78 1 79 80
79 1 80 81
80 1 81 82
81 1 82 83
82 1 83 84
83 1 84 85
84 1 85 86
85 1 86 87
86 1 87 88
87 1 88 89
88 1 89 90
89 1 90 91
90 1 91 92
91 1 92 93
92 1 93 94
93 1 94 95
94 1 95 96
95 1 96 97
96 1 97 98
97 1 98 99
98 1 99 100
99 1 100 101
100 1 101 102
101 1 102 103
102 1 103 104
103 1 104 105
104 1 105 106
105 1 106 107
106 1 107 108
107 1 108 109
108 1 109 110
109 1 110 111
110 1 111 112
111 1 112 113
112 1 113 114
113 1 114 115
114 1 115 116
115 1 116 117
116 1 117 118
117 1 118 119
118 1 119 120
119 1 120 121
120 1 121 122
121 1 122 123
122 1 123 124
123 1 124 125
124 1 125 126
125 1 126 127
126 1 127 2
127 1 1 128
128 1 128 129
129 1 129 130
130 1 130 131
131 1 131 132
132 1 132 133
133 1 133 134
134 1 134 135
135 1 135 136
136 1 136 137
137 1 137 138
138 1 138 139
139 1 139 140
140 1 140 141
141 1 141 142
142 1 142 143
143 1 143 144
144 1 144 145
145 1 145 146
146 1 146 147
147 1 147 2
148 1 1 148
149 1 148 149
150 1 149 150
151 1 150 151
152 1 151 152
153 1 152 153
154 1 153 154
155 1 154 155
156 1 155 156
157 1 156 157
158 1 157 158
159 1 158 159
160 1 159 160
161 1 160 161
162 1 161 162
163 1 162 163
164 1 163 164
165 1 164 165
166 1 165 166
167 1 166 167
168 1 167 44
169 1 1 168
170 1 168 169
171 1 169 170
172 1 170 171
173 1 171 172
174 1 172 173
175 1 173 174
176 1 174 175
177 1 175 176
178 1 176 177
179 1 177 178
180 1 178 179
181 1 179 180
182 1 180 181
183 1 181 182
184 1 182 183
185 1 183 184
186 1 184 185
187 1 185 186
188 1 186 187
189 1 187 86
